Written using lammpsTools.py

128 atoms
2 atom types

0.0 12.6788317650000000 xlo xhi
0.0 12.6788317650000000 ylo yhi
0.0 12.6788317650000000 zlo zhi
0.0000000000000000 0.0000000000000000 0.0000000000000000 xy xz yz

Atoms

1 1 11.8420900000000007 5.4284200000000000 12.0118299999999998
2 1 5.3789100000000003 11.7653700000000008 11.6398600000000005
3 1 11.9927299999999999 11.7831299999999999 12.1930800000000001
4 1 7.0682499999999999 7.2631699999999997 0.6534300000000000
5 1 0.6143000000000000 1.2316800000000001 7.3026299999999997
6 1 7.2285599999999999 0.7147200000000000 6.8669099999999998
7 1 0.6859700000000000 7.0173399999999999 7.2118000000000002
8 1 2.4230000000000000 5.6565799999999999 8.4719400000000000
9 1 8.5077900000000000 12.1109000000000009 8.6802600000000005
10 1 10.2090399999999999 6.8591800000000003 3.6147499999999999
11 1 3.9034399999999998 0.8462000000000000 10.3040299999999991
12 1 10.3725299999999994 0.3786000000000000 10.1058199999999996
13 1 10.2428200000000000 7.1071999999999997 10.3142300000000002
14 1 5.3489500000000003 2.1245300000000000 8.6638400000000004
15 1 5.5243799999999998 8.5552600000000005 8.5812899999999992
16 1 12.0433599999999998 8.8845299999999998 8.9317700000000002
17 1 1.0890700000000000 3.9154200000000001 3.8833500000000001
18 1 6.8647000000000000 10.3663799999999995 3.8376899999999998
19 1 1.1479100000000000 10.2474500000000006 10.6225400000000008
20 1 8.8471299999999999 2.7318199999999999 5.2691400000000002
21 1 8.4624100000000002 8.9459099999999996 5.4988099999999998
22 1 2.6573799999999999 2.3106900000000001 12.0503999999999998
23 1 3.8709099999999999 10.2810100000000002 0.5359000000000000
24 1 3.8380200000000002 10.2438800000000008 7.2986800000000001
25 1 3.8121600000000000 10.6633200000000006 4.3261300000000000
26 1 3.8489800000000001 3.8581599999999998 10.4912200000000002
27 1 4.0398800000000001 10.2502800000000001 10.3166600000000006
28 1 2.7401200000000001 2.7717499999999999 2.3895100000000000
29 1 2.4759300000000000 1.9321999999999999 8.9633099999999999
30 1 8.6692599999999995 2.5767699999999998 8.8831600000000002
31 1 2.3917099999999998 8.7243999999999993 9.1341099999999997
32 1 10.2586200000000005 7.0887700000000002 7.1883699999999999
33 1 2.4517199999999999 11.8861299999999996 5.7470800000000004
34 1 2.5190000000000001 5.3928799999999999 11.9385100000000008
35 1 8.6313399999999998 5.3019900000000000 11.6750500000000006
36 1 2.4733800000000001 12.0536200000000004 11.8664100000000001
37 1 7.2527600000000003 0.7347200000000000 3.6093199999999999
38 1 6.9130300000000000 7.1489900000000004 3.9027400000000001
39 1 7.2672600000000003 3.8472000000000000 0.5789100000000000
40 1 0.8818500000000000 10.0546199999999999 1.0772600000000001
41 1 7.1188399999999996 10.0989500000000003 0.5974000000000000
42 1 0.8162600000000000 4.2720099999999999 6.8906499999999999
43 1 6.9352600000000004 4.1738700000000000 7.0966899999999997
44 1 5.4653000000000000 2.4562200000000001 5.5149100000000004
45 1 5.5483300000000000 8.7097300000000004 5.6894200000000001
46 1 5.7587200000000003 2.3329900000000001 11.7225599999999996
47 1 5.6052499999999998 8.4528300000000005 11.8090700000000002
48 1 12.0071800000000000 5.7096400000000003 5.6768500000000000
49 2 5.5008900000000001 11.9570200000000000 5.7602799999999998
50 2 11.8827499999999997 12.2976500000000009 5.6498299999999997
51 2 5.5021100000000001 5.5418900000000004 11.8795599999999997
52 2 1.1857700000000000 0.8845900000000000 0.8920200000000000
53 2 7.2767299999999997 0.6305500000000001 0.6579500000000000
54 2 0.6832200000000000 7.0163900000000003 0.7954599999999999
55 2 6.8942500000000004 7.1630099999999999 7.0664400000000001
56 2 2.4691700000000001 5.7889900000000001 2.3633099999999998
57 2 8.5648499999999999 5.4780499999999996 2.2180000000000000
58 2 2.5543999999999998 12.1751400000000007 2.4423699999999999
59 2 8.9587800000000009 11.6732700000000005 2.3751600000000002
60 2 8.5027200000000001 5.6586699999999999 8.8521500000000000
61 2 2.2825000000000002 11.8440600000000007 8.8587399999999992
62 2 4.0060099999999998 0.8182000000000000 4.0152999999999999
63 2 10.2859999999999996 0.6680199999999999 3.9870999999999999
64 2 3.8506700000000000 7.2823200000000003 4.0876200000000003
65 2 3.9695399999999998 7.1389399999999998 10.2900299999999998
66 2 5.5573800000000002 2.4104000000000001 2.3456399999999999
67 2 12.3605599999999995 2.3448300000000000 2.3273799999999998
68 2 5.6923100000000000 8.7878200000000000 2.3294600000000001
69 2 11.7837800000000001 8.6623599999999996 2.2949999999999999
70 2 11.9131599999999995 2.5139000000000000 9.0676600000000001
71 2 7.2560000000000002 4.0305499999999999 3.8039000000000001
72 2 0.8098800000000000 10.5144300000000008 4.0880799999999997
73 2 0.8926700000000000 3.8402599999999998 10.2709799999999998
74 2 6.8813100000000000 3.9402599999999999 10.1754599999999993
75 2 7.0818000000000003 10.0462699999999998 10.3284000000000002
76 2 2.4913799999999999 2.2387600000000001 5.2969999999999997
77 2 2.2572899999999998 8.8532700000000002 5.5900299999999996
78 2 8.8800100000000004 2.1793999999999998 11.8552999999999997
79 2 2.4710700000000001 8.4120699999999999 11.9849399999999999
80 2 8.6621100000000002 8.6226800000000008 11.8259299999999996
81 2 4.2692699999999997 4.0668199999999999 0.7155500000000000
82 2 10.4082699999999999 3.8473199999999999 0.7694900000000000
83 2 10.1546800000000008 9.9149399999999996 0.6704599999999999
84 2 3.8566500000000001 3.8585600000000002 6.9974600000000002
85 2 10.0282000000000000 3.9832100000000001 6.8908199999999997
86 2 10.2784200000000006 10.0969599999999993 7.1488600000000000
87 2 4.2548599999999999 4.0539100000000001 3.8097500000000002
88 2 10.3247000000000000 4.0306800000000003 3.8852500000000001
89 2 10.3023900000000008 10.1070799999999998 3.7604000000000002
90 2 10.3828800000000001 3.8468499999999999 10.1765799999999995
91 2 10.1084999999999994 10.3995200000000008 10.3493499999999994
92 2 8.9985499999999998 2.3428100000000001 2.3509600000000002
93 2 2.6124600000000000 9.0634200000000007 2.5277599999999998
94 2 8.6051000000000002 8.5642700000000005 2.2240000000000002
95 2 8.4837500000000006 9.0737600000000000 8.7667400000000004
96 2 4.1955600000000004 0.6644400000000000 0.9161200000000000
97 2 10.4072200000000006 0.5851000000000000 0.8367700000000000
98 2 4.0690900000000001 7.0216300000000000 0.8601600000000000
99 2 10.1245600000000007 7.0880599999999996 0.6859100000000000
100 2 4.0293200000000002 0.5750400000000000 7.2394600000000002
101 2 9.9749499999999998 0.8172900000000000 6.9921899999999999
102 2 3.6943899999999998 7.0256999999999996 6.7890100000000002
103 2 2.2296999999999998 5.6010700000000000 5.2770599999999996
104 2 8.7429799999999993 5.6569599999999998 5.6607799999999999
105 2 8.7444699999999997 11.7307100000000002 5.3084600000000002
106 2 8.7577200000000008 11.7827699999999993 11.9728499999999993
107 2 0.9239900000000000 1.0214099999999999 4.1322599999999996
108 2 0.6275300000000000 7.3515400000000000 3.8731900000000001
109 2 0.6612200000000000 0.9713000000000001 10.4450900000000004
110 2 7.2375699999999998 0.7407700000000000 10.4128699999999998
111 2 0.4793400000000000 7.1280200000000002 10.1259499999999996
112 2 7.1274100000000002 7.0934100000000004 10.4562899999999992
113 2 5.5148700000000002 5.7458900000000002 2.4426199999999998
114 2 12.0243699999999993 5.5347600000000003 2.4062199999999998
115 2 5.6927199999999996 11.9253999999999998 2.3918800000000000
116 2 11.8597999999999999 11.8665400000000005 2.5056900000000000
117 2 5.4739699999999996 5.2751599999999996 8.7494899999999998
118 2 11.7233199999999993 5.4674899999999997 8.5227599999999999
119 2 5.6618500000000003 11.7822499999999994 8.8306600000000000
120 2 11.7520199999999999 11.8870199999999997 8.7855299999999996
121 2 0.8537200000000000 4.0618100000000004 0.9544300000000000
122 2 0.8732200000000000 10.5944099999999999 7.3466399999999998
123 2 6.8116800000000000 10.2643900000000006 7.1033700000000000
124 2 11.7501800000000003 2.7351399999999999 5.7175300000000000
125 2 11.6756300000000000 8.9668399999999995 5.6052600000000004
126 2 12.0485799999999994 2.4010500000000001 12.2781000000000002
127 2 11.9188200000000002 8.4592700000000001 11.9605200000000007
128 2 5.4310999999999998 5.5179000000000000 5.3511699999999998
